216
Atoms. Timestep: 10000
Si 12.9013 0.148133 0.187753
Si 0.0353476 1.91732 2.1043
Si 2.20839 12.9533 2.03159
Si 2.3346 2.22188 12.949
C 1.31096 1.17857 1.04909
C 3.25251 0.991235 3.30837
C 3.34737 3.18049 1.25865
C 0.880396 3.24094 3.18541
Si 4.57042 0.187339 12.9516
Si 4.4308 1.91288 2.24062
Si 6.68292 0.215475 2.07397
Si 6.53703 2.20919 12.7325
C 5.62884 1.30258 0.936089
C 7.85721 0.957861 3.26423
C 7.63009 3.06744 0.968112
C 5.48531 3.14813 3.28671
Si 8.43567 13.0618 12.9442
Si 8.67122 2.22867 2.16647
Si 10.6874 0.0870558 2.11931
Si 10.666 2.29856 13.0502
C 9.76505 1.25993 1.07512
C 12.0086 0.961833 3.27767
C 11.8697 3.20178 1.20474
C 9.7983 3.3318 3.22925
Si 0.140802 4.23346 0.0457655
Si 13.0599 6.75139 2.31402
Si 2.11953 4.32853 2.28778
Si 2.10547 6.50619 0.166257
C 1.07716 5.34894 1.32423
C 3.06923 5.31399 3.55162
C 3.07921 7.72444 1.24229
C 1.07424 7.77621 3.23573
Si 4.46831 4.34666 0.197161
Si 4.11988 6.64976 2.28646
Si 6.54063 4.17658 2.11298
Si 6.50734 6.55945 12.6825
C 5.48135 5.49325 1.13157
C 7.64983 5.31888 3.15991
C 7.38225 7.37304 1.10044
C 5.35828 7.86431 3.42774
Si 8.81449 4.2172 13.0412
Si 8.74315 6.47411 1.91409
Si 10.9801 4.50916 2.08429
Si 10.7898 6.63473 0.137153
C 9.7713 5.26854 1.05906
C 11.9859 5.38087 3.19345
C 11.8313 7.75701 1.25513
C 9.54529 7.61897 3.24481
Si 13.054 8.59222 0.117921
Si 12.9448 10.9256 2.17092
Si 1.93543 8.92473 2.29312
Si 2.2939 10.7681 0.0827232
C 1.00066 9.77065 0.973478
C 3.00882 10.0585 3.30823
C 3.4287 12.0725 0.852453
C 0.942178 12.0159 3.10075
Si 4.51258 8.49512 0.18076
Si 4.39819 10.8502 2.15406
Si 6.53738 8.5713 2.28145
Si 6.23319 10.8248 0.111851
C 5.48436 9.64643 1.22291
C 7.60401 9.81479 3.39676
C 7.33735 11.8242 1.12014
C 5.46112 12.2216 3.15311
Si 8.47287 8.84369 13.0292
Si 8.43785 10.9885 2.27693
Si 10.5199 8.92891 2.16002
Si 10.8319 10.9078 0.114479
C 9.61194 9.91579 1.04048
C 11.8349 9.75124 3.36278
C 11.8612 12.0307 1.04108
C 9.7843 11.8958 3.2151
Si 13.0206 12.9242 4.35463
Si 0.102934 2.20675 6.44671
Si 2.47314 13.0015 6.59
Si 2.15875 2.10911 4.37138
C 1.31035 1.0551 5.4826
C 3.36966 1.10198 7.62421
C 3.25615 3.20748 5.47116
C 1.03351 3.28425 7.7165
Si 4.4609 0.123512 4.42364
Si 4.43867 2.01792 6.47032
Si 6.47639 13.0355 6.52332
Si 6.7161 2.16647 4.43219
C 5.57461 1.25694 5.40871
C 7.46145 1.03468 7.64407
C 7.78262 3.34362 5.39303
C 5.38659 3.17367 7.76966
Si 9.03966 13.0429 4.30966
Si 8.84011 2.07048 6.35463
Si 10.9365 12.9268 6.58679
Si 10.9528 2.18138 4.24541
C 10.035 0.828875 5.42593
C 12.1124 1.02647 7.54935
C 11.9321 3.41185 5.36745
C 10.0534 3.11283 7.7483
Si 0.1874 4.51209 4.27785
Si 12.7998 6.58368 6.45595
Si 2.07866 4.28375 6.45522
Si 2.1369 6.71584 4.47711
C 1.16959 5.37759 5.46068
C 3.14735 5.40429 7.46906
C 3.24727 7.77899 5.43172
C 0.829693 7.62372 7.61233
Si 4.17162 4.20375 4.3484
Si 4.32105 6.36409 6.47345
Si 6.74745 4.38902 6.6407
Si 6.30553 6.56077 4.35181
C 5.48204 5.35192 5.39598
C 7.74928 5.46738 7.54927
C 7.48308 7.74766 5.31883
C 5.43928 7.40349 7.39102
Si 8.76762 4.44556 4.24118
Si 8.66034 6.63175 6.52168
Si 10.7096 4.47141 6.39423
Si 10.7855 6.46645 4.09401
C 9.83383 5.51896 5.33709
C 11.8189 5.41418 7.67367
C 11.8304 7.72388 5.2869
C 9.87157 7.67095 7.48851
Si 12.9732 8.7276 4.17016
Si 0.245041 10.7573 6.86702
Si 2.25445 8.56435 6.69866
Si 1.98409 10.8332 4.40726
C 1.18337 9.9113 5.63423
C 3.29832 9.79906 7.50823
C 3.37122 11.9407 5.34434
C 1.26302 12.0242 7.80403
Si 4.16708 8.89595 4.17124
Si 4.45106 10.8 6.57536
Si 6.3233 8.68004 6.5436
Si 6.65302 11.1146 4.33944
C 5.48 9.93374 5.33636
C 7.58744 9.81682 7.54211
C 7.67328 12.0934 5.51631
C 5.42035 11.9329 7.66977
Si 8.83783 8.74982 4.59201
Si 8.76641 11.0661 6.828
Si 10.8669 8.85666 6.61285
Si 10.9919 10.9045 4.5198
C 9.66855 10.1404 5.53807
C 11.997 9.6705 7.66816
C 12.0645 11.9197 5.55842
C 9.95279 12.0272 7.8347
Si 0.151702 13.032 8.7139
Si 0.00361515 2.29727 10.8361
Si 2.06443 13.0724 10.9311
Si 2.06284 2.01353 8.67046
C 0.913144 1.15567 9.7795
C 3.35607 1.07769 11.9592
C 3.39275 3.08608 9.81402
C 1.10448 3.30616 11.8401
Si 4.61458 0.204113 8.891
Si 4.47129 2.25739 10.9548
Si 6.63868 0.0447704 11.0311
Si 6.63824 2.37036 8.82288
C 5.71243 1.37293 10.0416
C 7.78238 1.29011 11.8797
C 7.81253 3.43365 9.67918
C 5.44382 3.39826 11.9812
Si 8.7032 0.0952094 8.68357
Si 8.90267 2.42 10.7382
Si 10.4532 0.100862 11.0511
Si 11.1247 2.03572 8.95469
C 9.77162 1.21545 9.86127
C 11.9464 1.23769 12.0378
C 12.0268 3.29251 9.92422
C 9.79941 3.35616 11.869
Si 12.8906 4.50478 8.7958
Si 0.230206 6.38928 10.8587
Si 2.3995 4.2337 10.9553
Si 2.08134 6.59055 8.44609
C 1.19454 5.32473 9.77457
C 3.24461 5.50213 12.0824
C 3.22425 7.64304 9.49642
C 1.16439 7.60563 11.9634
Si 4.21805 4.22921 8.55069
Si 3.91991 6.5203 10.636
Si 6.51594 4.41838 10.582
Si 6.50093 6.4448 8.59928
C 5.22254 5.45543 9.62828
C 7.58184 5.46462 11.806
C 7.70788 7.70896 9.68327
C 5.3879 7.4885 11.7861
Si 9.21711 4.37509 8.86095
Si 8.75133 6.56302 10.9026
Si 11.1025 4.39176 11.1902
Si 10.9373 6.83016 8.58308
C 10.0176 5.62101 9.84975
C 12.2029 5.54727 12.2083
C 12.1955 7.47816 9.94606
C 9.68958 7.52924 12.1687
Si 0.160565 8.71855 8.77989
Si 13.0735 10.7198 11.2192
Si 2.34163 8.77593 10.9076
Si 2.31649 10.9895 8.66545
C 1.1766 10.0241 9.9229
C 3.43033 9.83722 11.9002
C 3.41587 12.1626 9.83296
C 1.03021 11.964 12.1151
Si 4.3942 8.66315 8.46283
Si 4.39456 11.0034 10.8836
Si 6.50055 8.59836 10.6968
Si 6.36953 10.7344 8.67352
C 5.53504 9.5161 9.65805
C 7.30949 9.83097 11.8113
C 7.45128 11.9947 9.95931
C 5.65595 12.0979 12.0877
Si 8.96259 8.5598 8.76266
Si 8.74365 10.6007 10.94
Si 10.9069 8.33971 10.9547
Si 10.8997 10.7608 8.85846
C 9.89975 9.52202 9.96268
C 11.8253 9.53749 12.0421
C 11.8094 11.973 9.74126
C 9.45654 11.9489 11.9818
216
Atoms. Timestep: 10010
Si 12.8467 0.175577 0.0639828
Si -0.118055 2.02615 2.22363
Si 2.2236 13.0879 2.03953
Si 2.21087 2.15587 13.1728
C 0.980047 1.00944 1.04614
C 3.28653 1.12991 3.08491
C 3.38046 3.37726 1.03457
C 1.19413 3.23301 3.27097
Si 4.67071 0.27035 12.9798
Si 4.51942 2.19699 2.12563
Si 6.6709 -0.095077 2.32482
Si 6.63511 2.1935 12.7255
C 5.77138 1.09267 1.08307
C 7.74807 1.0361 3.46467
C 7.56922 3.26355 0.974713
C 5.65184 3.10309 3.41817
Si 8.42746 13.0847 13.2661
Si 8.60488 2.08043 2.28787
Si 10.6122 -0.0428536 2.23967
Si 10.7173 2.33189 13.1862
C 9.51058 0.947074 1.16534
C 11.8415 0.892123 3.23238
C 11.918 3.09346 1.23129
C 9.76195 3.21957 3.23137
Si 0.0230146 4.59372 0.064259
Si 13.0999 6.78669 2.28073
Si 2.17225 4.39943 2.11241
Si 2.25376 6.44105 0.0390799
C 0.857037 5.80338 1.06672
C 3.14464 5.45617 3.27881
C 3.25624 7.6668 1.08244
C 1.15263 7.86446 3.36495
Si 4.49329 4.38821 -0.032482
Si 4.42185 6.59686 2.1078
Si 6.60457 4.32231 2.00224
Si 6.3813 6.30669 13.0424
C 5.3146 5.42671 1.11149
C 7.4782 5.29649 3.31869
C 7.51367 7.57623 0.912867
C 5.44811 7.50299 3.33637
Si 8.57464 4.32598 12.9003
Si 8.42473 6.22139 1.95898
Si 10.8191 4.34061 1.96881
Si 10.9325 6.48969 0.0932702
C 9.67572 5.33908 0.878238
C 12.0543 5.60198 3.21178
C 11.8356 7.63433 1.23686
C 9.64978 7.45114 3.06258
Si 13.1866 8.48894 -0.0356148
Si 12.7466 10.9519 1.9926
Si 2.16071 8.92269 2.01357
Si 2.18162 11.0372 -0.196415
C 0.895541 9.93454 1.07605
C 3.20333 9.98627 3.01349
C 3.52249 12.094 0.975125
C 1.09794 11.9044 3.1997
Si 4.32551 8.69026 -0.0802155
Si 4.44578 10.9478 2.15873
Si 6.80547 8.71182 2.23414
Si 6.3619 10.7814 0.0747447
C 5.43041 9.69162 1.22266
C 7.62916 9.5942 3.54584
C 7.58719 11.8809 1.21152
C 5.4966 11.959 3.20673
Si 8.58747 8.57131 13.026
Si 8.57517 10.805 2.43054
Si 10.5792 8.7245 2.09891
Si 10.6662 10.9121 -0.111485
C 9.32732 9.8409 1.04901
C 11.7763 9.89504 3.15756
C 11.6866 12.1822 1.13836
C 9.93658 11.7319 3.34476
Si 12.9828 12.9127 4.33099
Si -0.0536091 1.99449 6.47077
Si 2.37799 12.9903 6.467
Si 2.20468 2.1714 4.25789
C 1.05088 0.92001 5.34186
C 3.64565 1.0134 7.61382
C 3.20757 3.07066 5.49455
C 0.95826 3.10203 7.48996
Si 4.39241 0.0534148 4.16762
Si 4.53532 2.0892 6.34921
Si 6.54611 13.1714 6.79062
Si 6.79445 2.09114 4.47727
C 5.60931 0.831721 5.42827
C 7.7394 1.22848 7.62617
C 7.72689 3.29387 5.65564
C 5.76279 3.44317 7.64003
Si 8.98696 13.0883 4.29711
Si 8.81024 2.18184 6.64818
Si 11.038 13.0206 6.60201
Si 11.108 2.30527 4.22328
C 10.0146 1.33824 5.34971
C 12.0136 1.06124 7.70772
C 12.0284 3.25932 5.41325
C 9.87759 3.26735 7.59353
Si -0.103621 4.44763 4.35817
Si 12.7101 6.6471 6.4039
Si 1.97419 4.36096 6.61539
Si 2.21483 6.69405 4.44112
C 0.835947 5.78634 5.44781
C 3.22978 5.44606 7.49726
C 3.55763 7.75424 5.32567
C 1.04453 7.60093 7.5495
Si 4.44956 4.27227 4.44611
Si 4.32466 6.4772 6.25028
Si 6.71548 4.58482 6.78486
Si 6.48796 6.44312 4.37642
C 5.48169 5.26782 5.52591
C 8.03592 5.63867 7.74556
C 7.56473 7.4109 5.44886
C 5.4797 7.4335 7.60504
Si 8.72626 4.37054 4.49223
Si 8.7234 6.62287 6.46669
Si 10.9061 4.39532 6.4643
Si 10.7603 6.48854 4.10137
C 9.66456 5.60212 5.34754
C 11.8421 5.4821 7.40528
C 11.7216 7.7504 5.36147
C 9.81543 7.72589 7.4507
Si 12.9275 8.80606 4.43535
Si -0.0733441 10.6243 6.82941
Si 2.18912 8.76305 6.67866
Si 1.96869 11.0282 4.63216
C 0.825319 9.63928 5.54211
C 3.31555 9.78241 7.57974
C 3.27473 11.9949 5.31496
C 1.03953 12.1643 7.52614
Si 4.4938 9.16012 4.08291
Si 4.35097 10.9852 6.33414
Si 6.64822 8.71869 6.4034
Si 6.62469 10.9796 4.30987
C 5.49138 9.93445 5.35202
C 7.6736 9.60442 7.648
C 7.76196 12.0446 5.53019
C 5.46516 12.089 7.78397
Si 8.68961 8.6963 4.56439
Si 8.55411 10.874 6.62444
Si 11.0159 8.76517 6.58349
Si 11.0074 10.907 4.60356
C 9.98755 9.77839 5.6948
C 12.0505 9.76226 8.1199
C 12.2179 11.738 5.54584
C 9.73856 11.9569 7.78858
Si -0.15505 13.1564 8.87773
Si 0.00363503 2.28877 11.1019
Si 2.22085 13.0753 10.9013
Si 2.28296 2.17841 8.51355
C 1.09438 1.10876 9.90058
C 3.31803 1.17258 11.8511
C 3.28642 3.18972 9.51314
C 1.19719 3.29091 12.3219
Si 4.54144 0.174626 8.95818
Si 4.37348 2.2743 10.8161
Si 6.69228 0.110172 11.0415
Si 6.75755 2.28533 8.85795
C 5.66094 1.16403 9.98679
C 7.9084 1.1368 11.7468
C 7.79977 3.5358 9.66198
C 5.53151 3.347 11.7832
Si 8.55174 -0.00561857 8.89518
Si 8.6615 2.46783 10.7072
Si 10.7556 0.0622493 11.2014
Si 11.0315 2.01362 9.24353
C 9.56268 0.975868 9.90868
C 11.7738 1.3352 12.0678
C 12.024 3.34175 9.92786
C 9.96619 3.46485 12.0059
Si 12.9716 4.17987 8.50972
Si 0.2714 6.44622 10.9857
Si 2.29264 3.9031 10.9092
Si 1.92442 6.41928 8.73537
C 1.23461 5.14289 9.76777
C 3.21209 5.21841 12.0358
C 3.03772 7.5269 9.55869
C 1.3834 7.59025 11.9731
Si 4.39691 4.45488 8.62562
Si 4.21397 6.46655 10.8431
Si 6.53512 4.4087 10.616
Si 6.79149 6.45478 8.65091
C 5.33736 5.45097 9.76664
C 7.71858 5.38545 11.85
C 7.65834 7.56619 9.75705
C 5.25603 7.64351 11.8318
Si 9.00953 4.5286 8.70972
Si 8.65515 6.64475 10.8868
Si 11.0997 4.52563 10.902
Si 10.9112 6.60631 8.51791
C 10.0892 5.74756 10.0485
C 12.1638 5.71318 12.1644
C 12.1824 7.48725 9.81357
C 9.70463 7.55384 12.0339
Si 0.216117 8.75123 9.07472
Si 13.0875 10.6834 11.1171
Si 2.38316 8.76923 10.8656
Si 2.11898 10.9618 8.5765
C 1.29328 9.96864 9.93307
C 3.37135 9.81502 12.0473
C 3.15594 12.0108 9.70064
C 0.76255 11.9029 12.1476
Si 4.2556 8.34293 8.59294
Si 4.49172 10.91 10.6601
Si 6.43419 8.65274 10.9297
Si 6.51949 10.7648 8.49801
C 5.17721 9.78598 9.60269
C 7.42193 9.58358 12.1194
C 7.4379 11.7731 9.62694
C 5.36314 12.0601 11.8284
Si 8.89515 8.82688 8.69374
Si 8.38897 10.8899 10.822
Si 10.9432 8.26186 10.9893
Si 10.832 10.8205 8.89324
C 9.82918 9.74946 9.99673
C 12.0337 9.63058 12.1445
C 11.7379 12.3575 9.942
C 9.47562 11.9552 12.0331
216
Atoms. Timestep: 10020
Si 12.8174 0.0727894 0.010292
Si -0.0419443 2.20251 2.35335
Si 2.19876 13.1026 2.19267
Si 2.14552 2.0732 13.4354
C 0.944202 1.05251 1.2668
C 3.45707 1.23465 3.03631
C 3.34338 3.26239 0.996484
C 0.937767 3.42741 3.14477
Si 4.41621 0.0711681 13.0016
Si 4.59613 2.4393 2.03172
Si 6.55381 -0.109667 2.40339
Si 6.6365 2.27649 13.0864
C 5.67194 1.03549 1.02688
C 7.68564 0.982351 3.33681
C 7.71441 3.34761 1.04092
C 5.57853 3.26536 3.26113
Si 8.59445 12.9935 13.242
Si 8.5601 2.2623 2.26528
Si 10.7244 -0.178213 2.38319
Si 10.7593 2.16217 13.2572
C 9.81007 1.16005 1.26423
C 11.9573 1.04068 3.3099
C 11.9845 3.46924 1.04325
C 9.74981 3.24548 3.33076
Si -0.060163 4.62626 0.169509
Si 13.0015 6.70942 2.25587
Si 2.20993 4.43221 2.02824
Si 2.43762 6.49434 -0.242708
C 1.34799 5.64093 1.09628
C 3.53454 5.45816 3.2052
C 3.43618 7.63909 0.909502
C 1.09121 7.98802 3.16402
Si 4.36161 4.19893 -0.348124
Si 4.44727 6.48437 1.97166
Si 6.51975 4.30562 2.24249
Si 6.30487 6.44594 13.2083
C 5.35877 5.25668 0.95033
C 7.60556 5.19261 3.28052
C 7.39044 7.29321 1.16337
C 5.75631 7.74492 3.22097
Si 8.60218 4.41471 12.8305
Si 8.39466 6.29538 2.18393
Si 10.7088 4.25988 2.11323
Si 10.935 6.50391 0.0209157
C 9.55296 5.32102 1.12408
C 11.7746 5.44658 3.1292
C 12.0021 7.65395 0.992323
C 9.42881 7.49199 3.14449
Si 13.1615 8.61315 -0.029336
Si 12.7667 10.9363 1.91329
Si 2.35783 8.77051 1.9335
Si 2.18536 11.1701 -0.108951
C 1.24899 9.85041 0.705349
C 3.39406 9.9084 3.19058
C 3.18302 12.137 0.937457
C 1.08332 11.9965 3.16155
Si 4.18991 8.86875 -0.11802
Si 4.37717 11.0667 1.98117
Si 6.74438 8.69194 2.08214
Si 6.59623 10.8466 0.0888366
C 5.45547 9.78719 1.09421
C 7.75377 9.8015 3.33943
C 7.57401 11.7155 1.36805
C 5.44985 11.7069 3.38876
Si 8.75216 8.53688 13.0281
Si 8.85941 10.7146 2.35737
Si 10.8655 8.55652 2.13746
Si 10.6054 10.7122 -0.1701
C 9.72647 9.62197 1.12337
C 11.7808 9.70377 3.21146
C 11.5939 11.8443 0.778928
C 9.6712 11.9296 3.48946
Si 13.034 13.0251 4.30998
Si -0.146787 1.87182 6.46413
Si 2.05798 13.2458 6.40638
Si 2.23889 2.0897 4.23599
C 1.08742 1.1143 5.26681
C 3.41486 1.06253 7.42376
C 3.3319 3.40514 5.40706
C 1.18584 3.04515 7.31898
Si 4.27193 -0.0873289 4.01386
Si 4.63633 2.28643 6.4829
Si 6.72266 13.1312 6.68165
Si 6.65359 2.09047 4.61058
C 5.48266 1.09026 5.37155
C 7.84423 0.99166 7.86648
C 7.6323 3.12492 5.79221
C 5.48597 3.24553 7.66277
Si 8.78825 13.1313 4.64545
Si 8.96567 2.34423 6.76024
Si 10.9048 13.155 6.71461
Si 10.9664 2.29657 4.28865
C 9.84161 1.18315 5.59176
C 11.7588 1.12351 7.77358
C 12.1307 3.20189 5.40385
C 9.98952 3.43115 7.88097
Si -0.0917591 4.41099 4.30082
Si 12.9919 6.77379 6.50063
Si 2.05456 4.44355 6.50131
Si 2.29282 6.65064 4.31217
C 1.17203 5.45892 5.30073
C 3.13687 5.60712 7.51248
C 3.18283 7.86042 5.27992
C 1.00831 7.70091 7.7905
Si 4.56833 4.27181 4.41209
Si 4.43237 6.61727 6.43625
Si 6.65734 4.54921 6.59123
Si 6.61829 6.34093 4.38924
C 5.55799 5.46119 5.54306
C 7.84604 5.58947 7.67751
C 7.70871 7.49008 5.52035
C 5.62971 7.52556 7.41127
Si 8.63485 4.21828 4.49785
Si 9.05394 6.62798 6.4411
Si 10.9794 4.17525 6.41884
Si 10.6763 6.53825 4.17522
C 10.0322 5.27772 5.43363
C 12.1911 5.4222 7.63575
C 11.9208 7.73929 5.4065
C 9.98745 7.72709 7.81968
Si 12.8638 8.82453 4.29956
Si -0.210486 10.7807 6.7751
Si 2.17072 8.68086 6.4156
Si 1.94193 11.0354 4.48595
C 1.04048 9.94992 5.63479
C 3.27885 9.85446 7.58491
C 3.20194 12.1489 5.37068
C 0.814002 11.8878 7.77287
Si 4.74543 8.95112 4.14489
Si 4.40676 11.0846 6.44007
Si 6.60244 8.62776 6.40775
Si 6.59251 10.9219 4.54313
C 5.5983 9.93212 5.61433
C 7.56727 9.821 7.48209
C 7.59408 12.0814 5.5087
C 5.38856 12.0664 7.49598
Si 8.77265 8.50382 4.36886
Si 8.60983 10.7122 6.33044
Si 11.1174 8.74438 6.78215
Si 10.812 10.7468 4.35361
C 9.76303 9.65428 5.543
C 11.9222 9.71143 8.12577
C 11.837 12.1233 5.43146
C 9.76909 11.9873 7.61367
Si -0.133562 13.2343 8.969
Si 0.00614858 2.27685 11.2924
Si 2.32905 13.0913 11.0137
Si 2.27717 2.20227 8.45185
C 1.18355 1.35932 9.69524
C 3.29266 1.22558 12.1561
C 3.37657 3.43975 9.66409
C 0.989217 3.31826 12.2612
Si 4.38254 -0.0811822 8.77315
Si 4.38841 2.27509 10.6347
Si 6.62165 -0.0674465 10.7176
Si 6.60203 2.26227 8.73436
C 5.52044 1.13309 9.72515
C 7.63386 1.08022 12.1036
C 7.7174 3.46196 9.76463
C 5.53585 3.23442 11.8343
Si 8.75199 -0.146619 8.82103
Si 8.71987 2.275 11.0024
Si 10.7789 0.0232496 11.1563
Si 10.8711 2.06576 9.12554
C 9.76834 1.05981 10.0917
C 11.8229 1.32856 12.108
C 12.0932 3.18467 9.91683
C 9.75256 3.38419 11.8126
Si 13.1249 4.0186 8.41354
Si 0.304978 6.47977 10.84
Si 2.04375 4.01374 10.847
Si 1.96261 6.15558 8.76092
C 0.862539 5.0573 9.88119
C 3.24792 5.30243 11.6585
C 3.22658 7.28716 10.0309
C 1.28516 7.65729 11.9504
Si 4.49956 4.59192 8.58069
Si 4.4604 6.35721 10.9763
Si 6.49448 4.45569 10.8703
Si 6.71484 6.71509 8.82583
C 5.62148 5.62024 9.74634
C 7.3487 5.54086 11.8237
C 7.71341 7.80004 9.93962
C 5.29298 7.43287 12.1681
Si 8.85954 4.54291 8.63891
Si 8.68997 6.51619 10.9249
Si 10.9436 4.67773 10.7546
Si 11.0433 6.46768 8.71336
C 9.6652 5.58532 9.78898
C 11.9362 5.47936 11.9772
C 12.1283 7.44867 9.87105
C 9.86888 7.48537 12.0434
Si 0.118271 8.61594 9.03258
Si 13.0043 10.7889 10.8857
Si 2.34177 8.83455 10.9423
Si 2.09094 10.9854 8.71818
C 1.10632 9.80497 9.84599
C 3.31076 10.1746 11.8525
C 3.30811 11.9985 9.693
C 0.988471 12.2774 11.7377
Si 4.22311 8.43511 8.6214
Si 4.3151 10.9385 10.661
Si 6.31148 8.65084 10.9031
Si 6.43782 10.7085 8.5461
C 5.49845 9.52682 9.59497
C 7.49544 9.83337 11.8358
C 7.31007 11.8387 9.7359
C 5.53403 12.0438 11.8641
Si 8.66573 8.84461 8.77755
Si 8.42599 10.9379 11.0036
Si 11.0196 8.5735 10.9252
Si 10.74 11.1327 9.0619
C 9.62823 9.97588 9.9958
C 11.8859 9.66566 11.9581
C 11.969 11.8319 10.1194
C 9.46277 12.0942 11.9609
216
Atoms. Timestep: 10030
Si 12.932 -0.0685918 0.139853
Si -0.0870489 2.33236 2.19919
Si 2.07477 13.1198 2.30112
Si 2.05244 2.15923 13.3767
C 0.897778 1.04437 1.23618
C 3.23199 1.18952 3.19125
C 3.30394 3.24982 1.08558
C 1.34568 3.38776 3.1883
Si 4.36004 -0.0394748 13.0176
Si 4.49497 2.33635 2.02298
Si 6.53066 -0.10658 2.25064
Si 6.44256 2.2184 13.3678
C 5.37367 0.991532 1.18671
C 7.61868 1.14709 3.4678
C 7.60879 3.37451 1.1079
C 5.53949 3.21786 3.38576
Si 8.75338 13.0551 13.2796
Si 8.65668 2.25771 2.23755
Si 10.9653 -0.0560758 2.30621
Si 10.853 2.28135 13.1526
C 9.6947 1.02974 1.25863
C 11.8751 1.15884 3.29385
C 11.7891 3.2215 1.38203
C 9.79293 3.10129 3.39077
Si 0.0983028 4.50931 0.115602
Si 13.1138 6.4072 2.12783
Si 2.41149 4.43531 2.21115
Si 2.37962 6.56209 -0.344213
C 1.15958 5.64978 0.975964
C 3.33037 5.38856 3.1909
C 3.41968 7.55924 0.957029
C 1.11989 7.55817 3.13725
Si 4.08022 4.02131 -0.339706
Si 4.52905 6.51144 2.00353
Si 6.53554 4.23272 2.28053
Si 6.3179 6.64045 13.126
C 5.30943 5.10393 0.933107
C 7.59019 5.17945 3.56041
C 7.67913 7.59637 1.10222
C 5.49942 7.30768 3.19624
Si 8.71905 4.50645 13.0564
Si 8.78325 6.45459 2.3151
Si 10.6533 4.40246 2.26237
Si 10.8324 6.4767 0.0157838
C 9.76627 5.50876 1.06676
C 11.945 5.4894 3.2154
C 12.0098 7.52228 0.990785
C 9.93285 7.46972 3.17305
Si 13.1297 8.87721 -0.113834
Si 13.0586 10.7406 1.92722
Si 2.34367 8.73989 2.07963
Si 2.09767 11.1424 -0.142609
C 1.21459 9.83804 1.07582
C 3.32082 9.88793 3.13408
C 3.16115 12.1025 1.20411
C 0.864832 11.8867 3.0844
Si 4.30968 8.97139 -0.0932506
Si 4.27114 10.9013 1.95497
Si 6.55646 8.94778 1.99415
Si 6.66198 10.9895 0.00321126
C 5.52067 9.99686 0.982541
C 7.59833 9.70894 3.25163
C 7.7836 12.0238 1.22497
C 5.396 11.9828 3.20029
Si 8.69433 8.5508 13.0653
Si 8.94469 10.8058 2.14897
Si 11.0987 8.37427 2.21021
Si 10.7172 10.6307 -0.283975
C 9.72257 9.4613 1.12425
C 11.8771 9.86068 3.06387
C 11.8201 11.9098 1.15522
C 9.6466 12.0514 3.43292
Si 12.9442 13.1639 4.29997
Si -0.0276409 2.04655 6.44383
Si 1.96133 13.2343 6.56476
Si 2.28944 2.36433 4.25362
C 1.00344 1.22056 5.18438
C 3.245 1.21515 7.53244
C 3.38508 3.19648 5.38614
C 1.09648 3.19669 7.36257
Si 4.27329 -0.0118069 4.28836
Si 4.29039 2.31154 6.58791
Si 6.56023 13.1569 6.52335
Si 6.59283 2.16208 4.48546
C 5.38608 0.969363 5.55694
C 7.72048 1.16906 7.6422
C 7.78099 3.16823 5.59378
C 5.50267 3.49896 7.72057
Si 8.56429 13.2552 4.70702
Si 8.92854 2.27097 6.84071
Si 10.5956 13.1562 6.77411
Si 10.7546 1.99446 4.45839
C 9.74236 1.26968 5.60969
C 12.093 1.08702 7.80302
C 11.9738 3.16941 5.31691
C 10.0047 3.4326 7.65913
Si 0.0418849 4.43574 4.21531
Si 13.4014 6.55832 6.55523
Si 2.40834 4.42697 6.19729
Si 2.27155 6.5625 3.99998
C 1.08033 5.70684 5.22673
C 3.34081 5.49494 7.50849
C 3.5608 7.62274 5.30424
C 1.36173 7.55037 7.80915
Si 4.50337 4.44682 4.286
Si 4.32967 6.7039 6.5638
Si 6.50373 4.35305 6.49765
Si 6.69215 6.56369 4.39407
C 5.45813 5.53538 5.38791
C 7.59977 5.69882 7.50319
C 7.84862 7.52858 5.33397
C 5.40067 7.69952 7.76702
Si 8.6847 4.19039 4.59157
Si 9.2264 6.55218 6.63194
Si 11.2092 4.19769 6.61026
Si 10.704 6.329 4.30369
C 9.80877 5.25891 5.46784
C 12.0905 5.40121 7.4727
C 12.2771 7.8515 5.75553
C 9.9483 7.60807 7.89501
Si 13.114 8.83712 4.19824
Si -0.302724 11.1187 6.70147
Si 2.0874 8.78494 6.45195
Si 2.17219 10.897 4.14072
C 0.838975 9.89441 5.34023
C 3.16597 9.87671 7.58454
C 2.97864 11.9809 5.42867
C 1.03725 12.2712 7.75615
Si 4.63871 8.62316 4.29655
Si 4.23909 10.9991 6.56034
Si 6.54132 8.52291 6.57141
Si 6.52754 10.8949 4.5234
C 5.46195 9.77417 5.58058
C 7.63775 9.63969 7.52914
C 7.68902 11.9255 5.52304
C 5.66618 11.8651 7.55475
Si 8.7721 8.54398 4.20434
Si 8.87352 10.814 6.34892
Si 10.8937 8.70283 6.79316
Si 10.6548 10.723 4.2682
C 10.0196 9.46664 5.3304
C 11.9448 10.0426 7.97738
C 11.8976 11.8164 5.34237
C 9.8137 11.7366 7.47561
Si 0.0498392 13.2184 9.04482
Si -0.0608157 2.25906 11.0635
Si 2.33978 13.3473 10.7674
Si 2.28129 2.25686 8.6045
C 1.22107 1.26969 9.9755
C 3.47141 1.27809 11.9976
C 3.22907 3.32423 9.64171
C 1.12652 3.29055 12.2949
Si 4.28173 0.000907395 8.30024
Si 4.43666 2.16652 10.7358
Si 6.34686 0.0591246 10.7426
Si 6.45355 2.27234 8.7088
C 5.27729 1.02657 9.54214
C 7.49154 0.974673 12.12
C 7.52706 3.09149 9.9273
C 5.56117 3.04026 11.8764
Si 8.99143 -0.246305 8.75719
Si 8.64607 1.94838 11.1459
Si 10.8186 -0.0761246 11.1437
Si 10.8019 2.23834 8.95508
C 9.69262 1.03934 9.79983
C 11.9127 0.982136 12.1327
C 12.0144 3.30715 9.91936
C 9.80196 3.42218 12.0038
Si 13.1083 3.91897 8.66386
Si 0.11235 6.42776 10.7906
Si 1.87561 4.29418 10.8585
Si 2.18863 6.30939 8.77985
C 0.95138 5.20309 9.6139
C 3.25275 5.20423 11.6907
C 3.24685 7.73304 9.73391
C 1.13178 7.57485 11.806
Si 4.4554 4.63796 8.53549
Si 4.59865 6.34841 10.9496
Si 6.54295 4.31845 10.865
Si 6.65848 6.90052 8.6997
C 5.63752 5.44205 9.70821
C 7.50054 5.60204 12.1411
C 7.56492 7.72476 10.0304
C 5.23248 7.81684 11.945
Si 8.40601 4.26838 8.68376
Si 8.70109 6.61657 11.0057
Si 10.9127 4.35347 10.8032
Si 11.1985 6.40627 8.92572
C 9.84615 5.54877 9.69524
C 12.0387 5.38183 12.0369
C 12.0049 7.58406 10.0295
C 9.88944 7.67926 11.8566
Si -0.106658 8.61623 8.68885
Si 13.133 10.9109 10.8709
Si 2.22504 8.78142 10.9329
Si 2.09324 10.8652 8.80866
C 1.14691 9.77362 9.90808
C 3.20134 9.9834 11.8846
C 3.18392 12.1481 9.78545
C 1.01229 11.9645 11.9658
Si 4.18902 8.70089 8.58577
Si 4.45985 10.9367 10.7925
Si 6.44688 8.61782 11.0362
Si 6.32493 10.7116 8.61257
C 5.21254 9.80534 9.80433
C 7.48482 9.53949 12.2825
C 7.70446 11.7926 9.69405
C 5.46212 11.9333 12.0194
Si 8.6687 8.82427 8.81143
Si 8.60796 10.9292 10.9864
Si 10.7981 8.79249 10.7288
Si 10.6914 11.1111 8.95984
C 9.74974 9.84924 9.94232
C 12.1068 9.8552 11.8541
C 11.8473 12.3632 9.84727
C 9.72662 11.8531 12.1538
216
Atoms. Timestep: 10040
Si 13.0797 -0.00687676 0.189986
Si -0.0300117 2.21797 2.26635
Si 1.93833 13.117 2.24402
Si 2.06995 2.15799 13.0245
C 0.993179 1.15245 1.14779
C 3.21785 1.0386 3.37525
C 3.15916 3.14531 1.11501
C 1.00547 3.38059 3.07978
Si 4.36831 0.0185426 13.1279
Si 4.22752 1.98787 2.37816
Si 6.6099 -0.0420761 2.1523
Si 6.37986 2.05493 13.1891
C 5.35877 0.980558 1.18108
C 7.47087 1.18623 3.2068
C 7.68502 3.10019 1.22819
C 5.31056 3.2801 3.16408
Si 8.78166 13.1311 13.114
Si 8.74049 2.03898 2.26213
Si 10.8896 0.126564 2.16692
Si 10.9391 2.2395 13.1575
C 10.0137 1.13684 1.06226
C 11.9859 1.14677 3.2136
C 11.9356 3.57902 0.977075
C 9.64303 3.20094 3.50881
Si 0.0628519 4.24779 0.0429322
Si 13.2258 6.29247 1.98406
Si 2.3418 4.37082 2.082
Si 2.23542 6.60359 -0.106416
C 1.41059 5.27307 0.871458
C 3.41713 5.60058 3.28264
C 3.33721 7.73605 0.968464
C 1.03203 7.6324 3.04142
Si 4.09001 4.01871 -0.192232
Si 4.48928 6.45775 1.91045
Si 6.5714 4.409 2.17574
Si 6.44327 6.65585 13.1167
C 5.56867 5.41793 1.03501
C 7.79525 5.48811 3.28326
C 7.50634 7.5536 1.24815
C 5.68359 7.80784 3.11729
Si 8.69578 4.35334 13.3316
Si 8.84188 6.63646 2.21026
Si 10.8654 4.4702 2.41392
Si 10.9935 6.56189 -0.192722
C 9.92146 5.5919 1.16055
C 12.0427 5.45392 3.2329
C 12.2215 7.57447 0.827938
C 10.107 7.36902 3.5006
Si 13.1386 8.77049 -0.152387
Si 13.1322 10.8022 2.28027
Si 2.19139 8.62295 2.14123
Si 2.20945 10.7913 0.0484569
C 1.19464 9.68387 0.91081
C 3.41747 9.47433 3.21098
C 3.09629 12.0012 1.09822
C 1.03253 11.9893 3.30478
Si 4.38806 8.87538 -0.0333488
Si 4.24274 10.9308 2.27527
Si 6.45966 8.9231 2.08999
Si 6.59994 11.1668 -0.0588397
C 5.3964 10.0324 0.911709
C 7.62408 9.98979 3.11295
C 7.69402 11.9397 1.08369
C 5.25129 12.0149 3.38597
Si 8.72336 8.54405 13.2047
Si 8.75662 10.9515 2.10133
Si 11.1248 8.55191 2.10153
Si 11.0159 10.6459 0.0375124
C 9.9815 9.63305 1.21594
C 12.1112 9.69436 3.24045
C 11.9928 11.7151 1.21518
C 9.80566 12.0906 3.20243
Si 12.9084 12.9581 4.26595
Si 0.168244 2.36102 6.43209
Si 2.09114 13.1347 6.43965
Si 2.18857 2.32959 4.30201
C 1.11938 1.12018 5.40829
C 2.95711 1.06075 7.53203
C 3.56464 3.46564 5.27768
C 1.20612 3.39716 7.55037
Si 4.26745 0.105997 4.59021
Si 4.22933 2.20761 6.55581
Si 6.50466 13.0642 6.55862
Si 6.3989 2.13748 4.49206
C 5.34441 1.27464 5.58242
C 7.51128 0.939723 7.77051
C 7.46902 3.20317 5.64451
C 5.37182 3.2324 7.49256
Si 8.52968 13.2122 4.33606
Si 8.56522 2.22128 6.72501
Si 10.8715 13.0874 6.70249
Si 10.7742 1.98889 4.4252
C 9.58456 1.01916 5.72606
C 11.8772 1.26205 7.58407
C 12.0255 3.21411 5.37479
C 9.61118 3.34177 7.80059
Si 0.170624 4.31046 4.29067
Si 13.523 6.36933 6.62494
Si 2.4402 4.50502 6.15185
Si 2.27992 6.60837 4.12096
C 1.4352 5.31619 5.15483
C 3.25437 5.46069 7.54427
C 2.86204 7.60624 5.46578
C 1.15369 7.74811 7.56903
Si 4.42112 4.56864 4.26493
Si 4.35957 6.55372 6.54051
Si 6.51857 4.45512 6.41955
Si 6.60724 6.5917 4.40108
C 5.47426 5.59158 5.50007
C 7.58959 5.36707 7.5735
C 7.65456 7.68066 5.52092
C 5.26635 7.72484 7.6377
Si 8.80828 4.29535 4.56574
Si 8.91472 6.34664 6.86483
Si 11.129 4.37359 6.64051
Si 11.1112 6.18886 4.57172
C 10.0238 5.33718 5.73791
C 12.3692 5.46219 7.82154
C 12.2417 7.59464 5.78701
C 10.021 7.62214 7.92839
Si 13.2429 8.72553 4.2636
Si -0.0735957 11.3076 6.60136
Si 2.08979 8.87258 6.44355
Si 2.21773 10.7955 4.02512
C 1.25216 9.98411 5.29188
C 2.98731 9.94979 7.63621
C 3.26704 11.9726 5.39886
C 1.03562 11.9918 7.81514
Si 4.36689 8.44603 4.22886
Si 4.13217 10.816 6.43077
Si 6.60998 8.63889 6.56774
Si 6.37451 10.8481 4.28896
C 5.4176 9.64172 5.44115
C 7.76002 9.66514 7.68649
C 7.53918 11.9997 5.44682
C 5.2052 11.9845 7.42742
Si 8.80081 8.7058 4.16432
Si 8.84332 10.5811 6.53523
Si 10.8603 8.69731 6.61817
Si 10.9351 10.8442 4.21825
C 9.85958 9.59321 5.30713
C 12.0523 9.98379 7.5908
C 11.6626 12.2563 5.38377
C 9.91356 11.8837 7.68257
Si 0.198808 13.2621 8.81146
Si -0.152835 2.13234 11.0419
Si 2.26163 13.3326 10.7606
Si 2.04323 2.42366 8.817
C 1.12336 1.37248 9.77865
C 3.17101 1.08995 12.0603
C 3.37553 3.41203 9.89926
C 1.01212 3.23133 11.886
Si 4.22116 0.0236326 8.27718
Si 4.3761 2.14832 10.7979
Si 6.33258 0.114241 10.8534
Si 6.4074 2.05757 8.69161
C 5.25487 1.03269 9.63948
C 7.43931 0.925915 12.1917
C 7.55687 2.98662 9.8972
C 5.38167 3.21468 12.0177
Si 8.65924 -0.150065 8.67509
Si 8.55984 1.9248 11.0391
Si 10.8208 0.0404334 11.1116
Si 10.8647 2.24129 8.73736
C 9.85095 1.05753 9.92686
C 11.9675 1.13705 12.1699
C 11.8658 3.15183 9.88033
C 9.59205 3.10608 12.0839
Si 13.0675 4.21356 8.74289
Si -0.151392 6.48035 10.8675
Si 2.04595 4.40691 10.8683
Si 2.49631 6.6547 8.64421
C 1.08795 5.51256 9.75337
C 3.2211 5.48774 11.8822
C 3.47006 7.64573 9.91046
C 1.11272 7.48932 11.8942
Si 4.3599 4.42644 8.78936
Si 4.43132 6.52279 10.756
Si 6.67213 4.20743 11.017
Si 6.56527 6.57744 8.58622
C 5.66156 5.48202 9.74915
C 7.65278 5.51411 11.9139
C 7.7813 7.63477 9.72809
C 5.41512 7.59529 12.0491
Si 8.28105 4.20468 8.78314
Si 8.72928 6.61713 10.8914
Si 10.8112 4.10025 11.1077
Si 11.0835 6.39989 8.83429
C 9.58939 5.11386 9.97142
C 11.9029 5.28138 11.9707
C 12.035 7.74078 9.6642
C 9.79173 7.68235 12.0383
Si -0.0801301 8.73721 8.43876
Si 13.0947 11.1188 10.7068
Si 2.1348 8.70749 10.7266
Si 2.13651 10.9279 8.71613
C 0.989715 9.86028 9.68038
C 3.23055 9.85234 12.0044
C 3.39729 12.0172 9.55279
C 1.20436 12.3409 11.8219
Si 4.08098 9.10168 8.76487
Si 4.22537 11.0391 11.033
Si 6.50436 8.88716 11.0505
Si 6.66551 10.7324 8.65846
C 5.53571 9.80551 9.90759
C 7.738 9.88514 12.0529
C 7.55998 12.0942 10.0296
C 5.40845 12.1369 12.0456
Si 8.80121 8.64313 8.8063
Si 8.64701 10.8136 11.015
Si 10.874 8.76799 10.7874
Si 10.8934 10.878 8.76857
C 9.68111 10.0017 9.77829
C 11.9613 9.88004 11.7776
C 11.9067 12.0164 9.95157
C 9.75508 11.9436 12.0757
216
Atoms. Timestep: 10050
Si 13.2106 0.0761233 -0.0357959
Si -0.062913 2.17393 2.16581
Si 2.13365 13.1236 2.1249
Si 2.05689 2.0952 12.7984
C 1.08551 1.20554 1.00397
C 3.01138 0.877947 3.59516
C 3.2731 2.9765 1.05093
C 1.27417 3.21171 3.28156
Si 4.08525 0.0935017 13.2988
Si 4.15842 1.88651 2.45215
Si 6.42431 0.0036506 2.21885
Si 6.46271 2.07972 13.0403
C 5.38986 1.02731 1.19133
C 7.45182 0.944796 3.34401
C 7.52612 3.15221 1.19633
C 5.34966 3.39201 3.25663
Si 8.74685 13.127 12.9617
Si 8.74657 2.04029 2.25688
Si 10.9545 -0.0125555 2.05961
Si 10.9211 2.2334 13.1581
C 9.68917 1.14446 1.06894
C 11.9109 1.02154 3.33789
C 11.9279 3.16353 1.35594
C 9.82861 3.13227 3.33064
Si 0.0744293 4.28858 -0.296781
Si 13.1652 6.40378 1.90777
Si 2.25744 4.23113 2.13615
Si 2.20095 6.58202 0.0446926
C 1.05682 5.2983 0.910493
C 3.3191 5.54883 2.90216
C 3.33798 7.59867 0.920365
C 1.05592 7.52213 3.09528
Si 4.29269 4.33576 0.0684105
Si 4.50584 6.71448 1.95843
Si 6.71132 4.46241 2.13325
Si 6.83718 6.48132 13.0403
C 5.46005 5.36995 0.959831
C 7.70784 5.5435 3.28214
C 7.63978 7.73307 1.16168
C 5.36554 7.47136 3.23934
Si 8.67039 4.17671 13.2932
Si 8.78993 6.76092 2.24239
Si 11.0932 4.43017 2.27378
Si 11.0717 6.55909 -0.11421
C 9.87959 5.54821 1.04264
C 12.3762 5.34451 3.26523